 Entering Gaussian System, Link 0=g16
 Initial command:
 /home/lyw/4_DFT/fitMN15/fitting-5/converge/5-TM/g16/l1.exe "/backup/36462.cluster.hpc/Gau-2936.inp" -scrdir="/backup/36462.cluster.hpc/"
 Entering Link 1 = /home/lyw/4_DFT/fitMN15/fitting-5/converge/5-TM/g16/l1.exe PID=      2937.
  
 Copyright (c) 1988,1990,1992,1993,1995,1998,2003,2009,2016,
            Gaussian, Inc.  All Rights Reserved.
  
 This is part of the Gaussian(R) 16 program.  It is based on
 the Gaussian(R) 09 system (copyright 2009, Gaussian, Inc.),
 the Gaussian(R) 03 system (copyright 2003, Gaussian, Inc.),
 the Gaussian(R) 98 system (copyright 1998, Gaussian, Inc.),
 the Gaussian(R) 94 system (copyright 1995, Gaussian, Inc.),
 the Gaussian 92(TM) system (copyright 1992, Gaussian, Inc.),
 the Gaussian 90(TM) system (copyright 1990, Gaussian, Inc.),
 the Gaussian 88(TM) system (copyright 1988, Gaussian, Inc.),
 the Gaussian 86(TM) system (copyright 1986, Carnegie Mellon
 University), and the Gaussian 82(TM) system (copyright 1983,
 Carnegie Mellon University). Gaussian is a federally registered
 trademark of Gaussian, Inc.
  
 This software contains proprietary and confidential information,
 including trade secrets, belonging to Gaussian, Inc.
  
 This software is provided under written license and may be
 used, copied, transmitted, or stored only in accord with that
 written license.
  
 The following legend is applicable only to US Government
 contracts under FAR:
  
                    RESTRICTED RIGHTS LEGEND
  
 Use, reproduction and disclosure by the US Government is
 subject to restrictions as set forth in subparagraphs (a)
 and (c) of the Commercial Computer Software - Restricted
 Rights clause in FAR 52.227-19.
  
 Gaussian, Inc.
 340 Quinnipiac St., Bldg. 40, Wallingford CT 06492
  
  
 ---------------------------------------------------------------
 Warning -- This program may not be used in any manner that
 competes with the business of Gaussian, Inc. or will provide
 assistance to any competitor of Gaussian, Inc.  The licensee
 of this program is prohibited from giving any competitor of
 Gaussian, Inc. access to this program.  By using this program,
 the user acknowledges that Gaussian, Inc. is engaged in the
 business of creating and licensing software in the field of
 computational chemistry and represents and warrants to the
 licensee that it is not a competitor of Gaussian, Inc. and that
 it will not use this program in any manner prohibited above.
 ---------------------------------------------------------------
  

 Cite this work as:
 Gaussian 16, Revision A.03,
 M. J. Frisch, G. W. Trucks, H. B. Schlegel, G. E. Scuseria, 
 M. A. Robb, J. R. Cheeseman, G. Scalmani, V. Barone, 
 G. A. Petersson, H. Nakatsuji, X. Li, M. Caricato, A. V. Marenich, 
 J. Bloino, B. G. Janesko, R. Gomperts, B. Mennucci, H. P. Hratchian, 
 J. V. Ortiz, A. F. Izmaylov, J. L. Sonnenberg, D. Williams-Young, 
 F. Ding, F. Lipparini, F. Egidi, J. Goings, B. Peng, A. Petrone, 
 T. Henderson, D. Ranasinghe, V. G. Zakrzewski, J. Gao, N. Rega, 
 G. Zheng, W. Liang, M. Hada, M. Ehara, K. Toyota, R. Fukuda, 
 J. Hasegawa, M. Ishida, T. Nakajima, Y. Honda, O. Kitao, H. Nakai, 
 T. Vreven, K. Throssell, J. A. Montgomery, Jr., J. E. Peralta, 
 F. Ogliaro, M. J. Bearpark, J. J. Heyd, E. N. Brothers, K. N. Kudin, 
 V. N. Staroverov, T. A. Keith, R. Kobayashi, J. Normand, 
 K. Raghavachari, A. P. Rendell, J. C. Burant, S. S. Iyengar, 
 J. Tomasi, M. Cossi, J. M. Millam, M. Klene, C. Adamo, R. Cammi, 
 J. W. Ochterski, R. L. Martin, K. Morokuma, O. Farkas, 
 J. B. Foresman, and D. J. Fox, Gaussian, Inc., Wallingford CT, 2016.
 
 ******************************************
 Gaussian 16:  ES64L-G16RevA.03 25-Dec-2016
                18-Mar-2021 
 ******************************************
 %nproc=8
 Will use up to    8 processors via shared memory.
 %mem=10GB
 %chk=h2o.chk
 ----------------------------------------------------------------------
 #p em=GD3 iop(3/174=1000000,3/175=-1,3/176=1530000) stable=opt MN15/de
 f2qzvp
 ----------------------------------------------------------------------
 1/38=1,172=1/1;
 2/12=2,17=6,18=5,40=1/2;
 3/5=45,7=101,11=2,25=1,30=1,74=-73,124=31,174=1000000,175=-1,176=1530000/1,2,3;
 4//1;
 5/5=2,38=5/2;
 6/7=2,8=2,9=2,10=2,28=1/1;
 8/6=1,10=90,11=11/1;
 9/8=-3,42=1,46=1/14;
 5/5=2,8=3,17=40,38=5/8(-2);
 6/7=2,8=2,9=2,10=2,28=1/1;
 99/5=1,9=1/99;
 Leave Link    1 at Thu Mar 18 11:48:25 2021, MaxMem=  1342177280 cpu:               0.3 elap:               0.0
 (Enter /home/lyw/4_DFT/fitMN15/fitting-5/converge/5-TM/g16/l101.exe)
 ---------------
 Have a nice day
 ---------------
 Symbolic Z-matrix:
 Charge =  0 Multiplicity = 1
 O                     0.        0.        0.11779 
 H                     0.        0.75545  -0.47116 
 H                     0.       -0.75545  -0.47116 
 
 ITRead=  0  0  0
 MicOpt= -1 -1 -1
 NAtoms=      3 NQM=        3 NQMF=       0 NMMI=      0 NMMIF=      0
                NMic=       0 NMicF=      0.
                    Isotopes and Nuclear Properties:
 (Nuclear quadrupole moments (NQMom) in fm**2, nuclear magnetic moments (NMagM)
  in nuclear magnetons)

  Atom         1           2           3
 IAtWgt=          16           1           1
 AtmWgt=  15.9949146   1.0078250   1.0078250
 NucSpn=           0           1           1
 AtZEff=  -0.0000000  -0.0000000  -0.0000000
 NQMom=    0.0000000   0.0000000   0.0000000
 NMagM=    0.0000000   2.7928460   2.7928460
 AtZNuc=   8.0000000   1.0000000   1.0000000
 Leave Link  101 at Thu Mar 18 11:48:25 2021, MaxMem=  1342177280 cpu:               0.6 elap:               0.1
 (Enter /home/lyw/4_DFT/fitMN15/fitting-5/converge/5-TM/g16/l202.exe)
                          Input orientation:                          
 ---------------------------------------------------------------------
 Center     Atomic      Atomic             Coordinates (Angstroms)
 Number     Number       Type             X           Y           Z
 ---------------------------------------------------------------------
      1          8           0        0.000000    0.000000    0.117790
      2          1           0        0.000000    0.755453   -0.471161
      3          1           0        0.000000   -0.755453   -0.471161
 ---------------------------------------------------------------------
                    Distance matrix (angstroms):
                    1          2          3
     1  O    0.000000
     2  H    0.957900   0.000000
     3  H    0.957900   1.510906   0.000000
 Stoichiometry    H2O
 Framework group  C2V[C2(O),SGV(H2)]
 Deg. of freedom     2
 Full point group                 C2V     NOp   4
 Largest Abelian subgroup         C2V     NOp   4
 Largest concise Abelian subgroup C2      NOp   2
                         Standard orientation:                         
 ---------------------------------------------------------------------
 Center     Atomic      Atomic             Coordinates (Angstroms)
 Number     Number       Type             X           Y           Z
 ---------------------------------------------------------------------
      1          8           0        0.000000   -0.000000    0.117790
      2          1           0        0.000000    0.755453   -0.471161
      3          1           0       -0.000000   -0.755453   -0.471161
 ---------------------------------------------------------------------
 Rotational constants (GHZ):         813.9339003         439.3262572         285.3218718
 Leave Link  202 at Thu Mar 18 11:48:25 2021, MaxMem=  1342177280 cpu:               0.1 elap:               0.0
 (Enter /home/lyw/4_DFT/fitMN15/fitting-5/converge/5-TM/g16/l301.exe)
 Standard basis: def2QZVP (5D, 7F)
 Ernie: Thresh=  0.10000D-02 Tol=  0.10000D-05 Strict=F.
 There are    56 symmetry adapted cartesian basis functions of A1  symmetry.
 There are    19 symmetry adapted cartesian basis functions of A2  symmetry.
 There are    27 symmetry adapted cartesian basis functions of B1  symmetry.
 There are    40 symmetry adapted cartesian basis functions of B2  symmetry.
 There are    44 symmetry adapted basis functions of A1  symmetry.
 There are    17 symmetry adapted basis functions of A2  symmetry.
 There are    23 symmetry adapted basis functions of B1  symmetry.
 There are    33 symmetry adapted basis functions of B2  symmetry.
   117 basis functions,   168 primitive gaussians,   142 cartesian basis functions
     5 alpha electrons        5 beta electrons
       nuclear repulsion energy         9.1891932293 Hartrees.
 IExCor= 7252 DFT=T Ex+Corr=MN15 ExCW=0 ScaHFX=  0.462806
 ScaDFX=  1.000000  1.000000  1.000000  1.000000 ScalE2=  1.000000  1.000000
 IRadAn=      5 IRanWt=     -1 IRanGd=            0 ICorTp=0 IEmpDi=131
 NAtoms=    3 NActive=    3 NUniq=    2 SFac= 2.25D+00 NAtFMM=   60 NAOKFM=F Big=F
 Integral buffers will be    131072 words long.
 Raffenetti 2 integral format.
 Two-electron integral symmetry is turned on.
 R6DIni: Non-standard D2/D3 S6 parameter, value=     1.000000
 R6DIni: Non-standard D2/D3 S8 parameter, value=    -1.000000
 R6DIni: Non-standard D2/D3 SR6 parameter, value=     1.530000
 R6Disp:  Grimme-D3 Dispersion energy=       -0.0000000157 Hartrees.
 Nuclear repulsion after empirical dispersion term =        9.1891932136 Hartrees.
 Leave Link  301 at Thu Mar 18 11:48:25 2021, MaxMem=  1342177280 cpu:               0.4 elap:               0.1
 (Enter /home/lyw/4_DFT/fitMN15/fitting-5/converge/5-TM/g16/l302.exe)
 NPDir=0 NMtPBC=     1 NCelOv=     1 NCel=       1 NClECP=     1 NCelD=      1
         NCelK=      1 NCelE2=     1 NClLst=     1 CellRange=     0.0.
 One-electron integrals computed using PRISM.
 One-electron integral symmetry used in STVInt
   4 Symmetry operations used in ECPInt.
 ECPInt:  NShTT=     703 NPrTT=    1591 LenC2=     704 LenP2D=    1543.
 LDataN:  DoStor=T MaxTD1= 8 Len=  415
 NBasis=   117 RedAO= T EigKep=  3.10D-04  NBF=    44    17    23    33
 NBsUse=   117 1.00D-06 EigRej= -1.00D+00 NBFU=    44    17    23    33
 Precomputing XC quadrature grid using
 IXCGrd= 4 IRadAn=           5 IRanWt=          -1 IRanGd=           0 AccXCQ= 0.00D+00.
 Generated NRdTot=       0 NPtTot=           0 NUsed=           0 NTot=          32
 NSgBfM=   142   142   142   142   142 MxSgAt=     3 MxSgA2=     3.
 Leave Link  302 at Thu Mar 18 11:48:25 2021, MaxMem=  1342177280 cpu:               1.8 elap:               0.2
 (Enter /home/lyw/4_DFT/fitMN15/fitting-5/converge/5-TM/g16/l303.exe)
 DipDrv:  MaxL=1.
 Leave Link  303 at Thu Mar 18 11:48:25 2021, MaxMem=  1342177280 cpu:               0.3 elap:               0.1
 (Enter /home/lyw/4_DFT/fitMN15/fitting-5/converge/5-TM/g16/l401.exe)
 ExpMin= 8.03D-02 ExpMax= 1.17D+05 ExpMxC= 1.13D+03 IAcc=3 IRadAn=         5 AccDes= 0.00D+00
 Harris functional with IExCor= 1009 and IRadAn=       5 diagonalized for initial guess.
 HarFok:  IExCor= 1009 AccDes= 0.00D+00 IRadAn=         5 IDoV= 1 UseB2=F ITyADJ=14
 ICtDFT=  3500011 ScaDFX=  1.000000  1.000000  1.000000  1.000000
 FoFCou: FMM=F IPFlag=           0 FMFlag=      100000 FMFlg1=           0
         NFxFlg=           0 DoJE=T BraDBF=F KetDBF=T FulRan=T
         wScrn=  0.000000 ICntrl=       500 IOpCl=  0 I1Cent=   200000004 NGrid=           0
         NMat0=    1 NMatS0=      1 NMatT0=    0 NMatD0=    1 NMtDS0=    0 NMtDT0=    0
 Petite list used in FoFCou.
 Harris En= -76.4319517282696    
 JPrj=0 DoOrth=F DoCkMO=F.
 Initial guess orbital symmetries:
       Occupied  (A1) (A1) (B2) (A1) (B1)
       Virtual   (A1) (B2) (A1) (B2) (B1) (A1) (B2) (A1) (A2) (B1)
                 (A1) (B2) (A1) (B2) (B2) (A1) (A1) (B1) (A2) (B1)
                 (A1) (B2) (A1) (B1) (A1) (B2) (A2) (B2) (B1) (B2)
                 (A1) (A2) (A1) (B2) (A2) (B1) (A1) (B2) (A1) (B2)
                 (A1) (B1) (A2) (B1) (A1) (B2) (A1) (B1) (A1) (B2)
                 (A2) (A1) (B2) (B1) (B2) (A1) (B1) (A1) (A2) (B2)
                 (A2) (A1) (B2) (B1) (B2) (A2) (A1) (B1) (B2) (A1)
                 (B2) (A1) (B1) (B1) (A2) (A1) (B2) (A2) (A1) (B2)
                 (A1) (A2) (B2) (B1) (A1) (B2) (A1) (B1) (A1) (A2)
                 (B2) (A1) (A2) (B2) (B1) (B1) (A1) (B1) (A1) (B2)
                 (A2) (A1) (B2) (A1) (B2) (B1) (A2) (A1) (B2) (A1)
                 (A1) (A1)
 The electronic state of the initial guess is 1-A1.
 Leave Link  401 at Thu Mar 18 11:48:26 2021, MaxMem=  1342177280 cpu:               3.1 elap:               0.4
 (Enter /home/lyw/4_DFT/fitMN15/fitting-5/converge/5-TM/g16/l502.exe)
 Keep R1 ints in memory in symmetry-blocked form, NReq=32915195.
 FoFCou: FMM=F IPFlag=           0 FMFlag=           0 FMFlg1=           0
         NFxFlg=           0 DoJE=F BraDBF=F KetDBF=F FulRan=T
         wScrn=  0.000000 ICntrl=       600 IOpCl=  0 I1Cent=           0 NGrid=           0
         NMat0=    1 NMatS0=   6903 NMatT0=    0 NMatD0=    1 NMtDS0=    0 NMtDT0=    0
 Petite list used in FoFCou.
 Closed shell SCF:
 Using DIIS extrapolation, IDIIS=  1040.
 NGot=  1342177280 LenX=  1336082051 LenY=  1336061446
 Requested convergence on RMS density matrix=1.00D-08 within 128 cycles.
 Requested convergence on MAX density matrix=1.00D-06.
 Requested convergence on             energy=1.00D-06.
 No special actions if energy rises.
 Integral accuracy reduced to 1.0D-05 until final iterations.

 Cycle   1  Pass 0  IDiag  1:
 E= -76.3478232007443    
 DIIS: error= 1.60D-01 at cycle   1 NSaved=   1.
 NSaved= 1 IEnMin= 1 EnMin= -76.3478232007443     IErMin= 1 ErrMin= 1.60D-01
 ErrMax= 1.60D-01  0.00D+00 EMaxC= 1.00D-01 BMatC= 6.86D-01 BMatP= 6.86D-01
 IDIUse=3 WtCom= 0.00D+00 WtEn= 1.00D+00
 Coeff-Com:  0.100D+01
 Coeff-En:   0.100D+01
 Coeff:      0.100D+01
 Gap=     0.265 Goal=   None    Shift=    0.000
 GapD=    0.265 DampG=1.000 DampE=0.250 DampFc=0.2500 IDamp=-1.
 Damping current iteration by 2.50D-01
 RMSDP=2.51D-03 MaxDP=7.85D-02              OVMax= 1.81D-01

 Cycle   2  Pass 0  IDiag  1:
 E= -76.3797665883485     Delta-E=       -0.031943387604 Rises=F Damp=T
 DIIS: error= 1.12D-01 at cycle   2 NSaved=   2.
 NSaved= 2 IEnMin= 2 EnMin= -76.3797665883485     IErMin= 2 ErrMin= 1.12D-01
 ErrMax= 1.12D-01  0.00D+00 EMaxC= 1.00D-01 BMatC= 3.02D-01 BMatP= 6.86D-01
 IDIUse=3 WtCom= 0.00D+00 WtEn= 1.00D+00
 Coeff-Com: -0.161D+01 0.261D+01
 Coeff-En:   0.000D+00 0.100D+01
 Coeff:      0.000D+00 0.100D+01
 Gap=     0.353 Goal=   None    Shift=    0.000
 RMSDP=1.11D-03 MaxDP=4.69D-02 DE=-3.19D-02 OVMax= 6.40D-02

 Cycle   3  Pass 0  IDiag  1:
 E= -76.4100627508496     Delta-E=       -0.030296162501 Rises=F Damp=F
 DIIS: error= 2.84D-02 at cycle   3 NSaved=   3.
 NSaved= 3 IEnMin= 3 EnMin= -76.4100627508496     IErMin= 3 ErrMin= 2.84D-02
 ErrMax= 2.84D-02  0.00D+00 EMaxC= 1.00D-01 BMatC= 4.42D-02 BMatP= 3.02D-01
 IDIUse=3 WtCom= 7.16D-01 WtEn= 2.84D-01
 EnCoef did   100 forward-backward iterations
 Coeff-Com:  0.170D+01-0.217D+01 0.147D+01
 Coeff-En:   0.205D+00 0.325D-02 0.792D+00
 Coeff:      0.127D+01-0.156D+01 0.128D+01
 Gap=     0.426 Goal=   None    Shift=    0.000
 RMSDP=6.34D-04 MaxDP=1.63D-02 DE=-3.03D-02 OVMax= 4.70D-02

 Cycle   4  Pass 0  IDiag  1:
 E= -76.4327085247692     Delta-E=       -0.022645773920 Rises=F Damp=F
 DIIS: error= 4.48D-03 at cycle   4 NSaved=   4.
 NSaved= 4 IEnMin= 4 EnMin= -76.4327085247692     IErMin= 4 ErrMin= 4.48D-03
 ErrMax= 4.48D-03  0.00D+00 EMaxC= 1.00D-01 BMatC= 9.60D-04 BMatP= 4.42D-02
 IDIUse=3 WtCom= 9.55D-01 WtEn= 4.48D-02
 Coeff-Com:  0.152D-01 0.623D-02 0.161D+00 0.818D+00
 Coeff-En:   0.000D+00 0.000D+00 0.000D+00 0.100D+01
 Coeff:      0.146D-01 0.595D-02 0.154D+00 0.826D+00
 Gap=     0.417 Goal=   None    Shift=    0.000
 RMSDP=1.02D-04 MaxDP=2.04D-03 DE=-2.26D-02 OVMax= 6.89D-03

 Cycle   5  Pass 0  IDiag  1:
 E= -76.4332932462497     Delta-E=       -0.000584721481 Rises=F Damp=F
 DIIS: error= 2.78D-04 at cycle   5 NSaved=   5.
 NSaved= 5 IEnMin= 5 EnMin= -76.4332932462497     IErMin= 5 ErrMin= 2.78D-04
 ErrMax= 2.78D-04  0.00D+00 EMaxC= 1.00D-01 BMatC= 4.18D-06 BMatP= 9.60D-04
 IDIUse=3 WtCom= 9.97D-01 WtEn= 2.78D-03
 Coeff-Com:  0.164D-01-0.249D-01-0.109D-01-0.697D-01 0.109D+01
 Coeff-En:   0.000D+00 0.000D+00 0.000D+00 0.000D+00 0.100D+01
 Coeff:      0.163D-01-0.248D-01-0.109D-01-0.695D-01 0.109D+01
 Gap=     0.418 Goal=   None    Shift=    0.000
 RMSDP=1.32D-05 MaxDP=4.35D-04 DE=-5.85D-04 OVMax= 4.24D-04

 Cycle   6  Pass 0  IDiag  1:
 E= -76.4332955976429     Delta-E=       -0.000002351393 Rises=F Damp=F
 DIIS: error= 2.52D-05 at cycle   6 NSaved=   6.
 NSaved= 6 IEnMin= 6 EnMin= -76.4332955976429     IErMin= 6 ErrMin= 2.52D-05
 ErrMax= 2.52D-05  0.00D+00 EMaxC= 1.00D-01 BMatC= 3.01D-08 BMatP= 4.18D-06
 IDIUse=1 WtCom= 1.00D+00 WtEn= 0.00D+00
 Coeff-Com:  0.246D-02-0.387D-02-0.243D-02-0.140D-01 0.107D+00 0.911D+00
 Coeff:      0.246D-02-0.387D-02-0.243D-02-0.140D-01 0.107D+00 0.911D+00
 Gap=     0.418 Goal=   None    Shift=    0.000
 RMSDP=1.31D-06 MaxDP=5.31D-05 DE=-2.35D-06 OVMax= 4.99D-05

 Initial convergence to 1.0D-05 achieved.  Increase integral accuracy.
 Cycle   7  Pass 1  IDiag  1:
 E= -76.4332934409871     Delta-E=        0.000002156656 Rises=F Damp=F
 DIIS: error= 1.08D-05 at cycle   1 NSaved=   1.
 NSaved= 1 IEnMin= 1 EnMin= -76.4332934409871     IErMin= 1 ErrMin= 1.08D-05
 ErrMax= 1.08D-05  0.00D+00 EMaxC= 1.00D-01 BMatC= 8.94D-09 BMatP= 8.94D-09
 IDIUse=1 WtCom= 1.00D+00 WtEn= 0.00D+00
 Coeff-Com:  0.100D+01
 Coeff:      0.100D+01
 Gap=     0.418 Goal=   None    Shift=    0.000
 RMSDP=1.31D-06 MaxDP=5.31D-05 DE= 2.16D-06 OVMax= 1.87D-05

 Cycle   8  Pass 1  IDiag  1:
 E= -76.4332934434798     Delta-E=       -0.000000002493 Rises=F Damp=F
 DIIS: error= 1.10D-06 at cycle   2 NSaved=   2.
 NSaved= 2 IEnMin= 2 EnMin= -76.4332934434798     IErMin= 2 ErrMin= 1.10D-06
 ErrMax= 1.10D-06  0.00D+00 EMaxC= 1.00D-01 BMatC= 4.28D-11 BMatP= 8.94D-09
 IDIUse=1 WtCom= 1.00D+00 WtEn= 0.00D+00
 Coeff-Com:  0.689D-02 0.993D+00
 Coeff:      0.689D-02 0.993D+00
 Gap=     0.418 Goal=   None    Shift=    0.000
 RMSDP=6.75D-08 MaxDP=2.74D-06 DE=-2.49D-09 OVMax= 3.99D-06

 Cycle   9  Pass 1  IDiag  1:
 E= -76.4332934435114     Delta-E=       -0.000000000032 Rises=F Damp=F
 DIIS: error= 6.30D-07 at cycle   3 NSaved=   3.
 NSaved= 3 IEnMin= 3 EnMin= -76.4332934435114     IErMin= 3 ErrMin= 6.30D-07
 ErrMax= 6.30D-07  0.00D+00 EMaxC= 1.00D-01 BMatC= 3.03D-11 BMatP= 4.28D-11
 IDIUse=1 WtCom= 1.00D+00 WtEn= 0.00D+00
 Coeff-Com: -0.820D-03 0.449D+00 0.552D+00
 Coeff:     -0.820D-03 0.449D+00 0.552D+00
 Gap=     0.418 Goal=   None    Shift=    0.000
 RMSDP=2.21D-08 MaxDP=7.87D-07 DE=-3.16D-11 OVMax= 1.81D-06

 Cycle  10  Pass 1  IDiag  1:
 E= -76.4332934435295     Delta-E=       -0.000000000018 Rises=F Damp=F
 DIIS: error= 2.92D-07 at cycle   4 NSaved=   4.
 NSaved= 4 IEnMin= 4 EnMin= -76.4332934435295     IErMin= 4 ErrMin= 2.92D-07
 ErrMax= 2.92D-07  0.00D+00 EMaxC= 1.00D-01 BMatC= 2.52D-12 BMatP= 3.03D-11
 IDIUse=1 WtCom= 1.00D+00 WtEn= 0.00D+00
 Coeff-Com: -0.163D-02 0.603D-01 0.222D+00 0.720D+00
 Coeff:     -0.163D-02 0.603D-01 0.222D+00 0.720D+00
 Gap=     0.418 Goal=   None    Shift=    0.000
 RMSDP=6.83D-09 MaxDP=2.65D-07 DE=-1.81D-11 OVMax= 4.73D-07

 SCF Done:  E(RMN15) =  -76.4332934435     A.U. after   10 cycles
            NFock= 10  Conv=0.68D-08     -V/T= 2.0013
 KE= 7.633409155977D+01 PE=-1.993161269748D+02 EE= 3.735954875794D+01
 Leave Link  502 at Thu Mar 18 11:48:28 2021, MaxMem=  1342177280 cpu:              15.0 elap:               1.9
 (Enter /home/lyw/4_DFT/fitMN15/fitting-5/converge/5-TM/g16/l601.exe)
 Copying SCF densities to generalized density rwf, IOpCl= 0 IROHF=0.

 **********************************************************************

            Population analysis using the SCF density.

 **********************************************************************

 Orbital symmetries:
       Occupied  (A1) (A1) (B2) (A1) (B1)
       Virtual   (A1) (B2) (A1) (B2) (B1) (A1) (B2) (A1) (A2) (B1)
                 (A1) (B2) (A1) (B2) (B2) (A1) (A1) (B1) (A2) (B1)
                 (A1) (B2) (A1) (B1) (A1) (B2) (A2) (B2) (B1) (B2)
                 (A1) (A2) (A1) (B2) (A2) (B1) (A1) (B2) (A1) (B2)
                 (A1) (B1) (A2) (A1) (B1) (B2) (A1) (B1) (A1) (B2)
                 (A2) (A1) (B2) (B1) (B2) (A1) (B1) (A1) (A2) (B2)
                 (A2) (A1) (B2) (B2) (A2) (B1) (A1) (B1) (B2) (A1)
                 (A1) (B2) (B1) (B1) (A2) (B2) (A1) (A2) (A1) (B2)
                 (A1) (A2) (B2) (B1) (A1) (B2) (A1) (B1) (A1) (A2)
                 (A1) (B2) (A2) (B2) (B1) (B1) (A1) (B1) (A1) (B2)
                 (A2) (A1) (B2) (B2) (A1) (B1) (A2) (A1) (B2) (A1)
                 (A1) (A1)
 The electronic state is 1-A1.
 Alpha  occ. eigenvalues --  -18.99446  -1.09527  -0.58735  -0.45244  -0.37773
 Alpha virt. eigenvalues --    0.03994   0.10030   0.27365   0.29973   0.30123
 Alpha virt. eigenvalues --    0.34275   0.42582   0.48906   0.55194   0.60915
 Alpha virt. eigenvalues --    0.64151   0.80975   0.93230   0.95837   1.02639
 Alpha virt. eigenvalues --    1.06530   1.29284   1.30233   1.32126   1.38535
 Alpha virt. eigenvalues --    1.38596   1.43996   1.80293   1.89518   1.99850
 Alpha virt. eigenvalues --    2.01511   2.10443   2.28699   2.29575   2.33368
 Alpha virt. eigenvalues --    2.34436   2.42779   2.54031   2.58632   2.66722
 Alpha virt. eigenvalues --    2.68549   2.86087   2.93530   3.10126   3.15168
 Alpha virt. eigenvalues --    3.23232   3.67625   3.77591   3.82094   3.83595
 Alpha virt. eigenvalues --    4.01545   4.03366   4.17282   4.19913   4.35823
 Alpha virt. eigenvalues --    4.57035   4.70954   4.74959   5.17938   5.23849
 Alpha virt. eigenvalues --    5.26347   5.66715   5.82364   5.94216   6.02690
 Alpha virt. eigenvalues --    6.34766   6.46905   6.63993   6.95228   6.95800
 Alpha virt. eigenvalues --    6.99964   7.03746   7.05605   7.15755   7.20350
 Alpha virt. eigenvalues --    7.30146   7.33701   7.56119   7.62885   7.71237
 Alpha virt. eigenvalues --    7.74671   7.75986   7.89321   7.90314   8.19328
 Alpha virt. eigenvalues --    8.32569   8.42242   8.56988   8.60637   8.84280
 Alpha virt. eigenvalues --    8.91244   9.61189   9.63965  10.00580  10.04543
 Alpha virt. eigenvalues --   10.45497  10.46088  10.67215  10.75918  10.84799
 Alpha virt. eigenvalues --   11.04665  11.16624  11.45579  11.48385  11.53618
 Alpha virt. eigenvalues --   11.60746  11.86828  12.53003  13.19892  13.20501
 Alpha virt. eigenvalues --   13.36189  13.76416  14.06854  16.16841  16.17196
 Alpha virt. eigenvalues --   47.46760 240.92346
          Condensed to atoms (all electrons):
               1          2          3
     1  O    7.852400   0.353990   0.353990
     2  H    0.353990   0.384803  -0.018983
     3  H    0.353990  -0.018983   0.384803
 Mulliken charges:
               1
     1  O   -0.560380
     2  H    0.280190
     3  H    0.280190
 Sum of Mulliken charges =   0.00000
 Mulliken charges with hydrogens summed into heavy atoms:
               1
     1  O    0.000000
 Electronic spatial extent (au):  <R**2>=             19.8479
 Charge=              0.0000 electrons
 Dipole moment (field-independent basis, Debye):
    X=             -0.0000    Y=             -0.0000    Z=             -1.9229  Tot=              1.9229
 Quadrupole moment (field-independent basis, Debye-Ang):
   XX=             -7.6762   YY=             -4.4686   ZZ=             -6.4031
   XY=              0.0000   XZ=              0.0000   YZ=              0.0000
 Traceless Quadrupole moment (field-independent basis, Debye-Ang):
   XX=             -1.4936   YY=              1.7141   ZZ=             -0.2205
   XY=              0.0000   XZ=              0.0000   YZ=              0.0000
 Octapole moment (field-independent basis, Debye-Ang**2):
  XXX=              0.0000  YYY=              0.0000  ZZZ=             -1.1514  XYY=             -0.0000
  XXY=             -0.0000  XXZ=             -0.2745  XZZ=              0.0000  YZZ=             -0.0000
  YYZ=             -1.3353  XYZ=             -0.0000
 Hexadecapole moment (field-independent basis, Debye-Ang**3):
 XXXX=             -6.9593 YYYY=             -6.4464 ZZZZ=             -7.5956 XXXY=             -0.0000
 XXXZ=             -0.0000 YYYX=             -0.0000 YYYZ=              0.0000 ZZZX=             -0.0000
 ZZZY=              0.0000 XXYY=             -2.5532 XXZZ=             -2.4798 YYZZ=             -2.0058
 XXYZ=             -0.0000 YYXZ=              0.0000 ZZXY=              0.0000
 N-N= 9.189193213582D+00 E-N=-1.993161358154D+02  KE= 7.633409155977D+01
 Symmetry A1   KE= 6.816439087261D+01
 Symmetry A2   KE= 7.547995595289D-20
 Symmetry B1   KE= 4.499404246647D+00
 Symmetry B2   KE= 3.670296440514D+00
 No NMR shielding tensors so no spin-rotation constants.
 Leave Link  601 at Thu Mar 18 11:48:28 2021, MaxMem=  1342177280 cpu:               1.9 elap:               0.3
 (Enter /home/lyw/4_DFT/fitMN15/fitting-5/converge/5-TM/g16/l801.exe)
 DoSCS=F DFT=T ScalE2(SS,OS)=  1.000000  1.000000
 Range of M.O.s used for correlation:     1   117
 NBasis=   117 NAE=     5 NBE=     5 NFC=     0 NFV=     0
 NROrb=    117 NOA=     5 NOB=     5 NVA=   112 NVB=   112

 **** Warning!!: The largest alpha MO coefficient is  0.16007431D+02

 Leave Link  801 at Thu Mar 18 11:48:28 2021, MaxMem=  1342177280 cpu:               0.3 elap:               0.1
 (Enter /home/lyw/4_DFT/fitMN15/fitting-5/converge/5-TM/g16/l914.exe)
 RHF ground state
 Doing stability rather than CIS.
 Keep R1 and R2 ints in memory in symmetry-blocked form, NReq=49241028.
 FoFCou: FMM=F IPFlag=           0 FMFlag=           0 FMFlg1=           0
         NFxFlg=           0 DoJE=F BraDBF=F KetDBF=F FulRan=T
         wScrn=  0.000000 ICntrl=       600 IOpCl=  0 I1Cent=           0 NGrid=           0
         NMat0=    1 NMatS0=   6903 NMatT0=    0 NMatD0=    1 NMtDS0=    0 NMtDT0=    0
 Petite list used in FoFCou.
 MDV=  1342177280 DFT=T DoStab=T Mixed=T DoRPA=F DoScal=F NonHer=F
 Making orbital integer symmetry assigments:
 Orbital symmetries:
       Occupied  (A1) (A1) (B2) (A1) (B1)
       Virtual   (A1) (B2) (A1) (B2) (B1) (A1) (B2) (A1) (A2) (B1)
                 (A1) (B2) (A1) (B2) (B2) (A1) (A1) (B1) (A2) (B1)
                 (A1) (B2) (A1) (B1) (A1) (B2) (A2) (B2) (B1) (B2)
                 (A1) (A2) (A1) (B2) (A2) (B1) (A1) (B2) (A1) (B2)
                 (A1) (B1) (A2) (A1) (B1) (B2) (A1) (B1) (A1) (B2)
                 (A2) (A1) (B2) (B1) (B2) (A1) (B1) (A1) (A2) (B2)
                 (A2) (A1) (B2) (B2) (A2) (B1) (A1) (B1) (B2) (A1)
                 (A1) (B2) (B1) (B1) (A2) (B2) (A1) (A2) (A1) (B2)
                 (A1) (A2) (B2) (B1) (A1) (B2) (A1) (B1) (A1) (A2)
                 (A1) (B2) (A2) (B2) (B1) (B1) (A1) (B1) (A1) (B2)
                 (A2) (A1) (B2) (B2) (A1) (B1) (A2) (A1) (B2) (A1)
                 (A1) (A1)
    24 initial guesses have been made.
 Convergence on wavefunction:    0.001000000000000
 Davidson Disk Diagonalization:  ConvIn= 1.00D-03 SkipCon=T Conv= 1.00D-03.
 Max sub-space:  2000 roots to seek:    24 dimension of matrix:         1120
 Iteration     1 Dimension    24 NMult     0 NNew     24
 CISAX will form    24 AO SS matrices at one time.
 NMat=    24 NSing=    12 JSym2X=-1.
 New state      1 was old state      2
 Excitation Energies [eV] at current iteration:
 Root      1 :     7.258123853377878
 Root      2 :     8.103556286602299
 Root      3 :     9.348453458160456
 Root      4 :     9.530414031663655
 Root      5 :     9.810846721100056
 Root      6 :    10.346127676287480
 Root      7 :    11.292584228133830
 Root      8 :    12.209909943478850
 Root      9 :    12.877430149579670
 Root     10 :    13.004465457717760
 Root     11 :    13.536031960968960
 Root     12 :    14.013149428150720
 Root     13 :    14.054788617570440
 Root     14 :    14.161750895791330
 Root     15 :    14.372216393374630
 Root     16 :    14.615754292671650
 Root     17 :    14.737744905311800
 Root     18 :    14.868510264090700
 Root     19 :    14.885088636348330
 Root     20 :    15.638860707999150
 Root     21 :    15.706793072939610
 Root     22 :    16.176417048259930
 Root     23 :    18.332927141578300
 Root     24 :    25.533563939895410
 Iteration     2 Dimension    48 NMult    24 NNew     24
 CISAX will form    24 AO SS matrices at one time.
 NMat=    24 NSing=    12 JSym2X=-1.
 Root      1 not converged, maximum delta is    0.034726277501070
 Excitation Energies [eV] at current iteration:
 Root      1 :     7.123620376876156   Change is   -0.134503476501722
 Root      2 :     8.014047756530818   Change is   -0.089508530071480
 Root      3 :     8.958508957469126   Change is   -0.389944500691331
 Root      4 :     9.217722813780725   Change is   -0.312691217882931
 Root      5 :     9.651457136201605   Change is   -0.159389584898451
 Root      6 :    10.186204082082450   Change is   -0.159923594205029
 Root      7 :    10.810626201894810   Change is   -0.481958026239028
 Root      8 :    11.994849476517090   Change is   -0.215060466961759
 Root      9 :    12.499703855830610   Change is   -0.377726293749060
 Root     10 :    12.631410411479190   Change is   -0.373055046238568
 Root     11 :    13.275181651951380   Change is   -0.260850309017578
 Root     12 :    13.832714926342220   Change is   -0.783039366329429
 Root     13 :    13.916599020457240   Change is   -0.096550407693487
 Root     14 :    13.931068688616310   Change is   -0.123719928954130
 Root     15 :    14.077432541734810   Change is   -0.084318354056518
 Root     16 :    14.310723890035100   Change is   -0.061492503339534
 Root     17 :    14.471029894482600   Change is   -0.266715010829198
 Root     18 :    14.574216143147980   Change is   -0.294294120942721
 Root     19 :    14.689253973768780   Change is   -0.195834662579551
 Root     20 :    15.445601085370370   Change is   -0.193259622628783
 Root     21 :    15.492475746071150   Change is   -0.214317326868456
 Root     22 :    15.689445573122920   Change is   -0.486971475137011
 Root     23 :    17.083445012022480   Change is   -1.249482129555819
 Root     24 :    19.222999326338100
 Iteration     3 Dimension    54 NMult    48 NNew      6
 CISAX will form     6 AO SS matrices at one time.
 NMat=     6 NSing=     3 JSym2X=-1.
 Root      1 not converged, maximum delta is    0.001757055184202
 Excitation Energies [eV] at current iteration:
 Root      1 :     7.123050649722438   Change is   -0.000569727153719
 Root      2 :     8.012707364373146   Change is   -0.001340392157673
 Root      3 :     8.947013480659610   Change is   -0.011495476809516
 Root      4 :     9.216184498763182   Change is   -0.001538315017542
 Root      5 :     9.649283860119823   Change is   -0.002173276081782
 Root      6 :    10.178116591908590   Change is   -0.008087490173861
 Iteration     4 Dimension    60 NMult    54 NNew      6
 CISAX will form     6 AO SS matrices at one time.
 NMat=     6 NSing=     3 JSym2X=-1.
 Root      1 has converged.
 Excitation Energies [eV] at current iteration:
 Root      1 :     7.123046194181240   Change is   -0.000004455541197
 Root      2 :     8.012701759122498   Change is   -0.000005605250648
 Root      3 :     8.946892111077378   Change is   -0.000121369582231
 Root      4 :     9.216174141023595   Change is   -0.000010357739587
 Root      5 :     9.649275640816871   Change is   -0.000008219302952
 Root      6 :    10.177736974726280   Change is   -0.000379617182313
 Convergence achieved on expansion vectors.
 ***********************************************************************
 Stability analysis using <AA,BB:AA,BB> singles matrix:
 ***********************************************************************
 1PDM for each excited state written to RWF  633
 Ground to excited state transition densities written to RWF  633

 Eigenvectors of the stability matrix:
 
 Eigenvector   1:      Triplet-B1   Eigenvalue= 0.2617671  <S**2>=2.000
       5 ->  6         0.69875
 The wavefunction is stable under the perturbations considered.
 Leave Link  914 at Thu Mar 18 11:48:50 2021, MaxMem=  1342177280 cpu:             177.5 elap:              22.2
 (Enter /home/lyw/4_DFT/fitMN15/fitting-5/converge/5-TM/g16/l508.exe)
 The wavefunction is already stable.
 Leave Link  508 at Thu Mar 18 11:48:50 2021, MaxMem=  1342177280 cpu:               0.0 elap:               0.0
 (Enter /home/lyw/4_DFT/fitMN15/fitting-5/converge/5-TM/g16/l601.exe)
 Copying SCF densities to generalized density rwf, IOpCl= 0 IROHF=0.

 **********************************************************************

            Population analysis using the SCF density.

 **********************************************************************

 Orbital symmetries:
       Occupied  (A1) (A1) (B2) (A1) (B1)
       Virtual   (A1) (B2) (A1) (B2) (B1) (A1) (B2) (A1) (A2) (B1)
                 (A1) (B2) (A1) (B2) (B2) (A1) (A1) (B1) (A2) (B1)
                 (A1) (B2) (A1) (B1) (A1) (B2) (A2) (B2) (B1) (B2)
                 (A1) (A2) (A1) (B2) (A2) (B1) (A1) (B2) (A1) (B2)
                 (A1) (B1) (A2) (A1) (B1) (B2) (A1) (B1) (A1) (B2)
                 (A2) (A1) (B2) (B1) (B2) (A1) (B1) (A1) (A2) (B2)
                 (A2) (A1) (B2) (B2) (A2) (B1) (A1) (B1) (B2) (A1)
                 (A1) (B2) (B1) (B1) (A2) (B2) (A1) (A2) (A1) (B2)
                 (A1) (A2) (B2) (B1) (A1) (B2) (A1) (B1) (A1) (A2)
                 (A1) (B2) (A2) (B2) (B1) (B1) (A1) (B1) (A1) (B2)
                 (A2) (A1) (B2) (B2) (A1) (B1) (A2) (A1) (B2) (A1)
                 (A1) (A1)
 The electronic state is 1-A1.
 Alpha  occ. eigenvalues --  -18.99446  -1.09527  -0.58735  -0.45244  -0.37773
 Alpha virt. eigenvalues --    0.03994   0.10030   0.27365   0.29973   0.30123
 Alpha virt. eigenvalues --    0.34275   0.42582   0.48906   0.55194   0.60915
 Alpha virt. eigenvalues --    0.64151   0.80975   0.93230   0.95837   1.02639
 Alpha virt. eigenvalues --    1.06530   1.29284   1.30233   1.32126   1.38535
 Alpha virt. eigenvalues --    1.38596   1.43996   1.80293   1.89518   1.99850
 Alpha virt. eigenvalues --    2.01511   2.10443   2.28699   2.29575   2.33368
 Alpha virt. eigenvalues --    2.34436   2.42779   2.54031   2.58632   2.66722
 Alpha virt. eigenvalues --    2.68549   2.86087   2.93530   3.10126   3.15168
 Alpha virt. eigenvalues --    3.23232   3.67625   3.77591   3.82094   3.83595
 Alpha virt. eigenvalues --    4.01545   4.03366   4.17282   4.19913   4.35823
 Alpha virt. eigenvalues --    4.57035   4.70954   4.74959   5.17938   5.23849
 Alpha virt. eigenvalues --    5.26347   5.66715   5.82364   5.94216   6.02690
 Alpha virt. eigenvalues --    6.34766   6.46905   6.63993   6.95228   6.95800
 Alpha virt. eigenvalues --    6.99964   7.03746   7.05605   7.15755   7.20350
 Alpha virt. eigenvalues --    7.30146   7.33701   7.56119   7.62885   7.71237
 Alpha virt. eigenvalues --    7.74671   7.75986   7.89321   7.90314   8.19328
 Alpha virt. eigenvalues --    8.32569   8.42242   8.56988   8.60637   8.84280
 Alpha virt. eigenvalues --    8.91244   9.61189   9.63965  10.00580  10.04543
 Alpha virt. eigenvalues --   10.45497  10.46088  10.67215  10.75918  10.84799
 Alpha virt. eigenvalues --   11.04665  11.16624  11.45579  11.48385  11.53618
 Alpha virt. eigenvalues --   11.60746  11.86828  12.53003  13.19892  13.20501
 Alpha virt. eigenvalues --   13.36189  13.76416  14.06854  16.16841  16.17196
 Alpha virt. eigenvalues --   47.46760 240.92346
          Condensed to atoms (all electrons):
               1          2          3
     1  O    7.852400   0.353990   0.353990
     2  H    0.353990   0.384803  -0.018983
     3  H    0.353990  -0.018983   0.384803
 Mulliken charges:
               1
     1  O   -0.560380
     2  H    0.280190
     3  H    0.280190
 Sum of Mulliken charges =   0.00000
 Mulliken charges with hydrogens summed into heavy atoms:
               1
     1  O    0.000000
 Electronic spatial extent (au):  <R**2>=             19.8479
 Charge=              0.0000 electrons
 Dipole moment (field-independent basis, Debye):
    X=             -0.0000    Y=             -0.0000    Z=             -1.9229  Tot=              1.9229
 Quadrupole moment (field-independent basis, Debye-Ang):
   XX=             -7.6762   YY=             -4.4686   ZZ=             -6.4031
   XY=              0.0000   XZ=              0.0000   YZ=              0.0000
 Traceless Quadrupole moment (field-independent basis, Debye-Ang):
   XX=             -1.4936   YY=              1.7141   ZZ=             -0.2205
   XY=              0.0000   XZ=              0.0000   YZ=              0.0000
 Octapole moment (field-independent basis, Debye-Ang**2):
  XXX=              0.0000  YYY=              0.0000  ZZZ=             -1.1514  XYY=             -0.0000
  XXY=             -0.0000  XXZ=             -0.2745  XZZ=              0.0000  YZZ=             -0.0000
  YYZ=             -1.3353  XYZ=             -0.0000
 Hexadecapole moment (field-independent basis, Debye-Ang**3):
 XXXX=             -6.9593 YYYY=             -6.4464 ZZZZ=             -7.5956 XXXY=             -0.0000
 XXXZ=             -0.0000 YYYX=             -0.0000 YYYZ=              0.0000 ZZZX=             -0.0000
 ZZZY=              0.0000 XXYY=             -2.5532 XXZZ=             -2.4798 YYZZ=             -2.0058
 XXYZ=             -0.0000 YYXZ=              0.0000 ZZXY=              0.0000
 N-N= 9.189193213582D+00 E-N=-1.993161358154D+02  KE= 7.633409155977D+01
 Symmetry A1   KE= 6.816439087261D+01
 Symmetry A2   KE= 7.547995595289D-20
 Symmetry B1   KE= 4.499404246647D+00
 Symmetry B2   KE= 3.670296440514D+00
 No NMR shielding tensors so no spin-rotation constants.
 Leave Link  601 at Thu Mar 18 11:48:51 2021, MaxMem=  1342177280 cpu:               1.9 elap:               0.3
 (Enter /home/lyw/4_DFT/fitMN15/fitting-5/converge/5-TM/g16/l9999.exe)

 Test job not archived.
 1\1\GINC-COMPUTE-0-14\Stability\RMN15\def2QZVP\H2O1\LYW\18-Mar-2021\0\
 \#p em=GD3 iop(3/174=1000000,3/175=-1,3/176=1530000) stable=opt MN15/d
 ef2qzvp\\Have a nice day\\0,1\O,0,0.,0.,0.11779\H,0,0.,0.755453,-0.471
 161\H,0,0.,-0.755453,-0.471161\\Version=ES64L-G16RevA.03\State=1-A1\HF
 =-76.4332934\RMSD=6.830e-09\Dipole=0.,0.,-0.7565414\Quadrupole=-1.1104
 508,1.2743706,-0.1639199,0.,0.,0.\PG=C02V [C2(O1),SGV(H2)]\\@


 IF YOU'RE NOT PART OF THE SOLUTION,
 THEN YOU'RE PART OF THE PRECIPITATE.
 Job cpu time:       0 days  0 hours  3 minutes 23.4 seconds.
 Elapsed time:       0 days  0 hours  0 minutes 25.8 seconds.
 File lengths (MBytes):  RWF=     52 Int=      0 D2E=      0 Chk=      3 Scr=      1
 Normal termination of Gaussian 16 at Thu Mar 18 11:48:51 2021.
